/*--------------------------------*- C++ -*----------------------------------*\
  =========                 |
  \\      /  F ield         | OpenFOAM: The Open Source CFD Toolbox
   \\    /   O peration     | Website:  https://openfoam.org
    \\  /    A nd           | Version:  10
     \\/     M anipulation  |
\*---------------------------------------------------------------------------*/
FoamFile
{
    format      ascii;
    class       volVectorField;
    location    "0.001";
    object      U;
}
// * * * * * * * * * * * * * * * * * * * * * * * * * * * * * * * * * * * * * //

dimensions      [0 1 -1 0 0 0 0];

internalField   nonuniform List<vector> 
1500
(
(-329.97 -0.000411582 0)
(-329.97 -0.000411714 0)
(-329.97 -0.000411676 0)
(-328.48 -0.00087209 0)
(-328.48 -0.000872395 0)
(-328.48 -0.000872275 0)
(-326.992 -0.000559699 0)
(-326.992 -0.000560064 0)
(-326.992 -0.000559922 0)
(-325.506 -0.000259393 0)
(-325.506 -0.000259784 0)
(-325.506 -0.000259644 0)
(-324.023 -7.15933e-05 0)
(-324.023 -7.19615e-05 0)
(-324.023 -7.18327e-05 0)
(-322.543 1.07185e-05 0)
(-322.543 1.04078e-05 0)
(-322.543 1.05193e-05 0)
(-321.065 3.11239e-05 0)
(-321.065 3.08839e-05 0)
(-321.065 3.09743e-05 0)
(-319.589 2.59717e-05 0)
(-319.589 2.57987e-05 0)
(-319.589 2.58678e-05 0)
(-318.117 1.55052e-05 0)
(-318.117 1.53868e-05 0)
(-318.117 1.54373e-05 0)
(-316.646 7.54372e-06 0)
(-316.646 7.46593e-06 0)
(-316.646 7.50166e-06 0)
(-315.178 3.34661e-06 0)
(-315.178 3.29693e-06 0)
(-315.178 3.32159e-06 0)
(-313.712 1.81848e-06 0)
(-313.712 1.78732e-06 0)
(-313.712 1.80403e-06 0)
(-312.249 1.61646e-06 0)
(-312.249 1.59709e-06 0)
(-312.249 1.60826e-06 0)
(-310.788 1.84577e-06 0)
(-310.788 1.83374e-06 0)
(-310.788 1.84113e-06 0)
(-309.329 2.0848e-06 0)
(-309.329 2.07731e-06 0)
(-309.329 2.08217e-06 0)
(-307.873 2.20973e-06 0)
(-307.873 2.20505e-06 0)
(-307.873 2.20822e-06 0)
(-306.418 2.22955e-06 0)
(-306.418 2.22661e-06 0)
(-306.418 2.22867e-06 0)
(-304.967 2.18779e-06 0)
(-304.967 2.18593e-06 0)
(-304.967 2.18727e-06 0)
(-303.517 2.12109e-06 0)
(-303.517 2.11993e-06 0)
(-303.517 2.12079e-06 0)
(-302.069 2.05004e-06 0)
(-302.069 2.0493e-06 0)
(-302.069 2.04986e-06 0)
(-300.624 1.98265e-06 0)
(-300.624 1.9822e-06 0)
(-300.624 1.98255e-06 0)
(-299.181 1.92028e-06 0)
(-299.181 1.91999e-06 0)
(-299.181 1.92022e-06 0)
(-297.74 1.86178e-06 0)
(-297.74 1.8616e-06 0)
(-297.74 1.86175e-06 0)
(-296.301 1.80575e-06 0)
(-296.301 1.80564e-06 0)
(-296.301 1.80573e-06 0)
(-294.864 1.75122e-06 0)
(-294.864 1.75115e-06 0)
(-294.864 1.75121e-06 0)
(-293.43 1.69771e-06 0)
(-293.43 1.69766e-06 0)
(-293.43 1.6977e-06 0)
(-291.997 1.64505e-06 0)
(-291.997 1.64502e-06 0)
(-291.997 1.64504e-06 0)
(-290.567 1.59321e-06 0)
(-290.567 1.5932e-06 0)
(-290.567 1.5932e-06 0)
(-289.138 1.54222e-06 0)
(-289.138 1.54222e-06 0)
(-289.138 1.54222e-06 0)
(-287.712 1.4921e-06 0)
(-287.712 1.49209e-06 0)
(-287.712 1.49209e-06 0)
(-286.287 1.44283e-06 0)
(-286.287 1.44283e-06 0)
(-286.287 1.44282e-06 0)
(-284.864 1.3944e-06 0)
(-284.864 1.3944e-06 0)
(-284.864 1.39439e-06 0)
(-283.444 1.3468e-06 0)
(-283.444 1.3468e-06 0)
(-283.444 1.34679e-06 0)
(-282.025 1.3e-06 0)
(-282.025 1.3e-06 0)
(-282.025 1.29999e-06 0)
(-280.608 1.25398e-06 0)
(-280.608 1.25398e-06 0)
(-280.608 1.25397e-06 0)
(-279.193 1.20871e-06 0)
(-279.193 1.20872e-06 0)
(-279.193 1.2087e-06 0)
(-277.78 1.16418e-06 0)
(-277.78 1.16419e-06 0)
(-277.78 1.16418e-06 0)
(-276.369 1.12037e-06 0)
(-276.369 1.12037e-06 0)
(-276.369 1.12036e-06 0)
(-274.96 1.07726e-06 0)
(-274.96 1.07726e-06 0)
(-274.96 1.07725e-06 0)
(-273.552 1.03482e-06 0)
(-273.552 1.03482e-06 0)
(-273.552 1.03481e-06 0)
(-272.147 9.93046e-07 0)
(-272.147 9.9305e-07 0)
(-272.147 9.93039e-07 0)
(-270.743 9.51915e-07 0)
(-270.743 9.5192e-07 0)
(-270.743 9.51909e-07 0)
(-269.341 9.11412e-07 0)
(-269.341 9.11416e-07 0)
(-269.341 9.11405e-07 0)
(-267.94 8.71518e-07 0)
(-267.94 8.71522e-07 0)
(-267.94 8.71511e-07 0)
(-266.542 8.32218e-07 0)
(-266.542 8.32223e-07 0)
(-266.542 8.32212e-07 0)
(-265.145 7.93496e-07 0)
(-265.145 7.93501e-07 0)
(-265.145 7.9349e-07 0)
(-263.75 7.55337e-07 0)
(-263.75 7.55342e-07 0)
(-263.75 7.55331e-07 0)
(-262.356 7.17725e-07 0)
(-262.356 7.1773e-07 0)
(-262.356 7.1772e-07 0)
(-260.964 6.80647e-07 0)
(-260.964 6.80651e-07 0)
(-260.964 6.80641e-07 0)
(-259.574 6.44087e-07 0)
(-259.574 6.44091e-07 0)
(-259.574 6.44081e-07 0)
(-258.186 6.08031e-07 0)
(-258.186 6.08036e-07 0)
(-258.186 6.08026e-07 0)
(-256.799 5.72467e-07 0)
(-256.799 5.72471e-07 0)
(-256.799 5.72461e-07 0)
(-255.414 5.3738e-07 0)
(-255.414 5.37384e-07 0)
(-255.414 5.37374e-07 0)
(-254.03 5.02757e-07 0)
(-254.03 5.02762e-07 0)
(-254.03 5.02752e-07 0)
(-252.648 4.68586e-07 0)
(-252.648 4.68591e-07 0)
(-252.648 4.68581e-07 0)
(-251.267 4.34855e-07 0)
(-251.267 4.34859e-07 0)
(-251.267 4.3485e-07 0)
(-249.888 4.01551e-07 0)
(-249.888 4.01555e-07 0)
(-249.888 4.01545e-07 0)
(-248.511 3.68662e-07 0)
(-248.511 3.68666e-07 0)
(-248.511 3.68656e-07 0)
(-247.135 3.36176e-07 0)
(-247.135 3.3618e-07 0)
(-247.135 3.36171e-07 0)
(-245.761 3.04083e-07 0)
(-245.761 3.04087e-07 0)
(-245.761 3.04077e-07 0)
(-244.388 2.7237e-07 0)
(-244.388 2.72374e-07 0)
(-244.388 2.72365e-07 0)
(-243.017 2.41028e-07 0)
(-243.017 2.41032e-07 0)
(-243.017 2.41023e-07 0)
(-241.647 2.10045e-07 0)
(-241.647 2.10049e-07 0)
(-241.647 2.1004e-07 0)
(-240.278 1.7941e-07 0)
(-240.278 1.79414e-07 0)
(-240.278 1.79405e-07 0)
(-238.911 1.49115e-07 0)
(-238.911 1.49119e-07 0)
(-238.911 1.4911e-07 0)
(-237.546 1.19148e-07 0)
(-237.546 1.19151e-07 0)
(-237.546 1.19143e-07 0)
(-236.182 8.94989e-08 0)
(-236.182 8.95025e-08 0)
(-236.182 8.94939e-08 0)
(-234.819 6.0159e-08 0)
(-234.819 6.01626e-08 0)
(-234.819 6.01541e-08 0)
(-233.458 3.11184e-08 0)
(-233.458 3.11219e-08 0)
(-233.458 3.11135e-08 0)
(-232.098 2.36777e-09 0)
(-232.098 2.37117e-09 0)
(-232.098 2.36284e-09 0)
(-230.74 -2.61021e-08 0)
(-230.74 -2.60988e-08 0)
(-230.74 -2.61071e-08 0)
(-229.382 -5.43003e-08 0)
(-229.382 -5.42971e-08 0)
(-229.382 -5.43053e-08 0)
(-228.027 -8.22357e-08 0)
(-228.027 -8.22326e-08 0)
(-228.027 -8.22407e-08 0)
(-226.672 -1.09917e-07 0)
(-226.672 -1.09914e-07 0)
(-226.672 -1.09922e-07 0)
(-225.319 -1.37353e-07 0)
(-225.319 -1.3735e-07 0)
(-225.319 -1.37358e-07 0)
(-223.967 -1.64552e-07 0)
(-223.967 -1.64549e-07 0)
(-223.967 -1.64557e-07 0)
(-222.617 -1.91522e-07 0)
(-222.617 -1.91519e-07 0)
(-222.617 -1.91527e-07 0)
(-221.267 -2.18271e-07 0)
(-221.267 -2.18269e-07 0)
(-221.267 -2.18276e-07 0)
(-219.919 -2.44809e-07 0)
(-219.919 -2.44806e-07 0)
(-219.919 -2.44814e-07 0)
(-218.573 -2.71141e-07 0)
(-218.573 -2.71139e-07 0)
(-218.573 -2.71146e-07 0)
(-217.227 -2.97278e-07 0)
(-217.227 -2.97275e-07 0)
(-217.227 -2.97283e-07 0)
(-215.883 -3.23225e-07 0)
(-215.883 -3.23223e-07 0)
(-215.883 -3.2323e-07 0)
(-214.54 -3.48991e-07 0)
(-214.54 -3.4899e-07 0)
(-214.54 -3.48997e-07 0)
(-213.198 -3.74584e-07 0)
(-213.198 -3.74583e-07 0)
(-213.198 -3.7459e-07 0)
(-211.858 -4.00011e-07 0)
(-211.858 -4.0001e-07 0)
(-211.858 -4.00016e-07 0)
(-210.518 -4.25279e-07 0)
(-210.518 -4.25278e-07 0)
(-210.518 -4.25285e-07 0)
(-209.18 -4.50396e-07 0)
(-209.18 -4.50395e-07 0)
(-209.18 -4.50402e-07 0)
(-207.843 -4.75369e-07 0)
(-207.843 -4.75368e-07 0)
(-207.843 -4.75374e-07 0)
(-206.507 -5.00205e-07 0)
(-206.507 -5.00204e-07 0)
(-206.507 -5.0021e-07 0)
(-205.172 -5.24911e-07 0)
(-205.172 -5.2491e-07 0)
(-205.172 -5.24917e-07 0)
(-203.839 -5.49495e-07 0)
(-203.839 -5.49494e-07 0)
(-203.839 -5.495e-07 0)
(-202.507 -5.73962e-07 0)
(-202.507 -5.73962e-07 0)
(-202.507 -5.73968e-07 0)
(-201.175 -5.98322e-07 0)
(-201.175 -5.98321e-07 0)
(-201.175 -5.98328e-07 0)
(-199.845 -6.22579e-07 0)
(-199.845 -6.22579e-07 0)
(-199.845 -6.22585e-07 0)
(-198.516 -6.46742e-07 0)
(-198.516 -6.46742e-07 0)
(-198.516 -6.46748e-07 0)
(-197.188 -6.70816e-07 0)
(-197.188 -6.70816e-07 0)
(-197.188 -6.70822e-07 0)
(-195.861 -6.9481e-07 0)
(-195.861 -6.9481e-07 0)
(-195.861 -6.94816e-07 0)
(-194.535 -7.18728e-07 0)
(-194.535 -7.18729e-07 0)
(-194.535 -7.18735e-07 0)
(-193.21 -7.4258e-07 0)
(-193.21 -7.42581e-07 0)
(-193.21 -7.42586e-07 0)
(-191.887 -7.6637e-07 0)
(-191.887 -7.66371e-07 0)
(-191.887 -7.66377e-07 0)
(-190.564 -7.90106e-07 0)
(-190.564 -7.90108e-07 0)
(-190.564 -7.90113e-07 0)
(-189.242 -8.13795e-07 0)
(-189.242 -8.13797e-07 0)
(-189.242 -8.13802e-07 0)
(-187.922 -8.37443e-07 0)
(-187.922 -8.37445e-07 0)
(-187.922 -8.3745e-07 0)
(-186.602 -8.61058e-07 0)
(-186.602 -8.61059e-07 0)
(-186.602 -8.61065e-07 0)
(-185.283 -8.84645e-07 0)
(-185.283 -8.84647e-07 0)
(-185.283 -8.84652e-07 0)
(-183.966 -9.08211e-07 0)
(-183.966 -9.08213e-07 0)
(-183.966 -9.08219e-07 0)
(-182.649 -9.31764e-07 0)
(-182.649 -9.31766e-07 0)
(-182.649 -9.31771e-07 0)
(-181.334 -9.5531e-07 0)
(-181.334 -9.55313e-07 0)
(-181.334 -9.55318e-07 0)
(-180.019 -9.78856e-07 0)
(-180.019 -9.78859e-07 0)
(-180.019 -9.78864e-07 0)
(-178.705 -1.00241e-06 0)
(-178.705 -1.00241e-06 0)
(-178.705 -1.00242e-06 0)
(-177.392 -1.02597e-06 0)
(-177.392 -1.02598e-06 0)
(-177.392 -1.02598e-06 0)
(-176.08 -1.04956e-06 0)
(-176.08 -1.04957e-06 0)
(-176.08 -1.04957e-06 0)
(-174.769 -1.07318e-06 0)
(-174.769 -1.07318e-06 0)
(-174.769 -1.07318e-06 0)
(-173.459 -1.09683e-06 0)
(-173.459 -1.09683e-06 0)
(-173.459 -1.09683e-06 0)
(-172.15 -1.12052e-06 0)
(-172.15 -1.12052e-06 0)
(-172.15 -1.12053e-06 0)
(-170.842 -1.14426e-06 0)
(-170.842 -1.14426e-06 0)
(-170.842 -1.14427e-06 0)
(-169.535 -1.16805e-06 0)
(-169.535 -1.16806e-06 0)
(-169.535 -1.16806e-06 0)
(-168.228 -1.19191e-06 0)
(-168.228 -1.19192e-06 0)
(-168.228 -1.19192e-06 0)
(-166.923 -1.21584e-06 0)
(-166.923 -1.21585e-06 0)
(-166.923 -1.21585e-06 0)
(-165.618 -1.23985e-06 0)
(-165.618 -1.23986e-06 0)
(-165.618 -1.23986e-06 0)
(-164.314 -1.26394e-06 0)
(-164.314 -1.26395e-06 0)
(-164.314 -1.26395e-06 0)
(-163.011 -1.28813e-06 0)
(-163.011 -1.28814e-06 0)
(-163.011 -1.28814e-06 0)
(-161.709 -1.31242e-06 0)
(-161.709 -1.31243e-06 0)
(-161.709 -1.31243e-06 0)
(-160.408 -1.33682e-06 0)
(-160.408 -1.33683e-06 0)
(-160.408 -1.33683e-06 0)
(-159.107 -1.36134e-06 0)
(-159.107 -1.36134e-06 0)
(-159.107 -1.36135e-06 0)
(-157.808 -1.38598e-06 0)
(-157.808 -1.38599e-06 0)
(-157.808 -1.38599e-06 0)
(-156.509 -1.41075e-06 0)
(-156.509 -1.41076e-06 0)
(-156.509 -1.41077e-06 0)
(-155.211 -1.43567e-06 0)
(-155.211 -1.43568e-06 0)
(-155.211 -1.43568e-06 0)
(-153.913 -1.46074e-06 0)
(-153.913 -1.46075e-06 0)
(-153.913 -1.46075e-06 0)
(-152.617 -1.48597e-06 0)
(-152.617 -1.48598e-06 0)
(-152.617 -1.48598e-06 0)
(-151.321 -1.51137e-06 0)
(-151.321 -1.51138e-06 0)
(-151.321 -1.51138e-06 0)
(-150.026 -1.53694e-06 0)
(-150.026 -1.53695e-06 0)
(-150.026 -1.53696e-06 0)
(-148.732 -1.56271e-06 0)
(-148.732 -1.56272e-06 0)
(-148.732 -1.56272e-06 0)
(-147.438 -1.58867e-06 0)
(-147.438 -1.58868e-06 0)
(-147.438 -1.58868e-06 0)
(-146.146 -1.61484e-06 0)
(-146.146 -1.61485e-06 0)
(-146.146 -1.61485e-06 0)
(-144.854 -1.64122e-06 0)
(-144.854 -1.64123e-06 0)
(-144.854 -1.64124e-06 0)
(-143.562 -1.66783e-06 0)
(-143.562 -1.66785e-06 0)
(-143.562 -1.66785e-06 0)
(-142.272 -1.69468e-06 0)
(-142.272 -1.6947e-06 0)
(-142.272 -1.6947e-06 0)
(-140.982 -1.72178e-06 0)
(-140.982 -1.7218e-06 0)
(-140.982 -1.7218e-06 0)
(-139.693 -1.74914e-06 0)
(-139.693 -1.74916e-06 0)
(-139.693 -1.74916e-06 0)
(-138.405 -1.77677e-06 0)
(-138.405 -1.77679e-06 0)
(-138.405 -1.77679e-06 0)
(-137.117 -1.80469e-06 0)
(-137.117 -1.8047e-06 0)
(-137.117 -1.8047e-06 0)
(-135.83 -1.8329e-06 0)
(-135.83 -1.83291e-06 0)
(-135.83 -1.83292e-06 0)
(-134.543 -1.86142e-06 0)
(-134.543 -1.86143e-06 0)
(-134.543 -1.86143e-06 0)
(-133.258 -1.89025e-06 0)
(-133.258 -1.89027e-06 0)
(-133.258 -1.89027e-06 0)
(-131.973 -1.91943e-06 0)
(-131.973 -1.91945e-06 0)
(-131.973 -1.91945e-06 0)
(-130.688 -1.94895e-06 0)
(-130.688 -1.94897e-06 0)
(-130.688 -1.94897e-06 0)
(-129.404 -1.97883e-06 0)
(-129.404 -1.97886e-06 0)
(-129.404 -1.97886e-06 0)
(-128.121 -2.0091e-06 0)
(-128.121 -2.00912e-06 0)
(-128.121 -2.00912e-06 0)
(-126.839 -2.03975e-06 0)
(-126.839 -2.03977e-06 0)
(-126.839 -2.03977e-06 0)
(-125.557 -2.07081e-06 0)
(-125.557 -2.07083e-06 0)
(-125.557 -2.07084e-06 0)
(-124.276 -2.1023e-06 0)
(-124.276 -2.10232e-06 0)
(-124.276 -2.10232e-06 0)
(-122.995 -2.13422e-06 0)
(-122.995 -2.13425e-06 0)
(-122.995 -2.13425e-06 0)
(-121.715 -2.16661e-06 0)
(-121.715 -2.16664e-06 0)
(-121.715 -2.16664e-06 0)
(-120.435 -2.19947e-06 0)
(-120.435 -2.1995e-06 0)
(-120.435 -2.1995e-06 0)
(-119.156 -2.23283e-06 0)
(-119.156 -2.23286e-06 0)
(-119.156 -2.23286e-06 0)
(-117.878 -2.2667e-06 0)
(-117.878 -2.26673e-06 0)
(-117.878 -2.26673e-06 0)
(-116.6 -2.30111e-06 0)
(-116.6 -2.30114e-06 0)
(-116.6 -2.30114e-06 0)
(-115.323 -2.33607e-06 0)
(-115.323 -2.3361e-06 0)
(-115.323 -2.3361e-06 0)
(-114.047 -2.37161e-06 0)
(-114.047 -2.37165e-06 0)
(-114.047 -2.37165e-06 0)
(-112.771 -2.40776e-06 0)
(-112.771 -2.40779e-06 0)
(-112.771 -2.40779e-06 0)
(-111.495 -2.44452e-06 0)
(-111.495 -2.44456e-06 0)
(-111.495 -2.44456e-06 0)
(-110.22 -2.48194e-06 0)
(-110.22 -2.48198e-06 0)
(-110.22 -2.48198e-06 0)
(-108.946 -2.52003e-06 0)
(-108.946 -2.52007e-06 0)
(-108.946 -2.52007e-06 0)
(-107.672 -2.55883e-06 0)
(-107.672 -2.55887e-06 0)
(-107.672 -2.55887e-06 0)
(-106.398 -2.59835e-06 0)
(-106.398 -2.59839e-06 0)
(-106.398 -2.59839e-06 0)
(-105.125 -2.63864e-06 0)
(-105.125 -2.63868e-06 0)
(-105.125 -2.63868e-06 0)
(-103.853 -2.67971e-06 0)
(-103.853 -2.67976e-06 0)
(-103.853 -2.67976e-06 0)
(-102.581 -2.72161e-06 0)
(-102.581 -2.72166e-06 0)
(-102.581 -2.72166e-06 0)
(-101.31 -2.76437e-06 0)
(-101.31 -2.76442e-06 0)
(-101.31 -2.76442e-06 0)
(-100.039 -2.80802e-06 0)
(-100.039 -2.80807e-06 0)
(-100.039 -2.80807e-06 0)
(-98.7682 -2.8526e-06 0)
(-98.7682 -2.85265e-06 0)
(-98.7682 -2.85265e-06 0)
(-97.4983 -2.89815e-06 0)
(-97.4983 -2.89821e-06 0)
(-97.4983 -2.8982e-06 0)
(-96.2287 -2.94471e-06 0)
(-96.2287 -2.94477e-06 0)
(-96.2287 -2.94477e-06 0)
(-94.9596 -2.99232e-06 0)
(-94.9596 -2.99238e-06 0)
(-94.9596 -2.99238e-06 0)
(-93.691 -3.04103e-06 0)
(-93.691 -3.0411e-06 0)
(-93.691 -3.04109e-06 0)
(-92.4228 -3.09089e-06 0)
(-92.4228 -3.09096e-06 0)
(-92.4228 -3.09095e-06 0)
(-91.1551 -3.14194e-06 0)
(-91.1551 -3.14201e-06 0)
(-91.1551 -3.14201e-06 0)
(-89.8878 -3.19425e-06 0)
(-89.8878 -3.19432e-06 0)
(-89.8878 -3.19432e-06 0)
(-88.6209 -3.24786e-06 0)
(-88.6209 -3.24793e-06 0)
(-88.6209 -3.24793e-06 0)
(-87.3544 -3.30283e-06 0)
(-87.3544 -3.30291e-06 0)
(-87.3544 -3.30291e-06 0)
(-86.0884 -3.35924e-06 0)
(-86.0884 -3.35932e-06 0)
(-86.0884 -3.35931e-06 0)
(-84.8227 -3.41713e-06 0)
(-84.8227 -3.41722e-06 0)
(-84.8227 -3.41721e-06 0)
(-83.5575 -3.47659e-06 0)
(-83.5575 -3.47668e-06 0)
(-83.5575 -3.47668e-06 0)
(-82.2926 -3.53769e-06 0)
(-82.2926 -3.53779e-06 0)
(-82.2926 -3.53778e-06 0)
(-81.0281 -3.60051e-06 0)
(-81.0281 -3.60061e-06 0)
(-81.0281 -3.60061e-06 0)
(-79.764 -3.66513e-06 0)
(-79.764 -3.66524e-06 0)
(-79.764 -3.66523e-06 0)
(-78.5003 -3.73164e-06 0)
(-78.5003 -3.73175e-06 0)
(-78.5003 -3.73175e-06 0)
(-77.2369 -3.80014e-06 0)
(-77.2369 -3.80025e-06 0)
(-77.2369 -3.80025e-06 0)
(-75.9739 -3.87072e-06 0)
(-75.9739 -3.87084e-06 0)
(-75.9739 -3.87083e-06 0)
(-74.7113 -3.9435e-06 0)
(-74.7113 -3.94362e-06 0)
(-74.7113 -3.94362e-06 0)
(-73.449 -4.01858e-06 0)
(-73.449 -4.01872e-06 0)
(-73.449 -4.01871e-06 0)
(-72.187 -4.0961e-06 0)
(-72.187 -4.09625e-06 0)
(-72.187 -4.09624e-06 0)
(-70.9254 -4.17619e-06 0)
(-70.9254 -4.17634e-06 0)
(-70.9254 -4.17633e-06 0)
(-69.6641 -4.25898e-06 0)
(-69.6641 -4.25914e-06 0)
(-69.6641 -4.25913e-06 0)
(-68.4031 -4.34462e-06 0)
(-68.4031 -4.34479e-06 0)
(-68.4031 -4.34478e-06 0)
(-67.1425 -4.43329e-06 0)
(-67.1425 -4.43347e-06 0)
(-67.1425 -4.43346e-06 0)
(-65.8821 -4.52515e-06 0)
(-65.8821 -4.52534e-06 0)
(-65.8821 -4.52534e-06 0)
(-64.6221 -4.6204e-06 0)
(-64.6221 -4.6206e-06 0)
(-64.6221 -4.62059e-06 0)
(-63.3623 -4.71923e-06 0)
(-63.3623 -4.71945e-06 0)
(-63.3623 -4.71944e-06 0)
(-62.1029 -4.82187e-06 0)
(-62.1029 -4.8221e-06 0)
(-62.1029 -4.82209e-06 0)
(-60.8437 -4.92856e-06 0)
(-60.8437 -4.9288e-06 0)
(-60.8437 -4.92879e-06 0)
(-59.5849 -5.03955e-06 0)
(-59.5849 -5.03981e-06 0)
(-59.5849 -5.0398e-06 0)
(-58.3263 -5.15512e-06 0)
(-58.3263 -5.1554e-06 0)
(-58.3263 -5.15538e-06 0)
(-57.0679 -5.27558e-06 0)
(-57.0679 -5.27588e-06 0)
(-57.0679 -5.27586e-06 0)
(-55.8099 -5.40125e-06 0)
(-55.8099 -5.40157e-06 0)
(-55.8099 -5.40156e-06 0)
(-54.5521 -5.53251e-06 0)
(-54.5521 -5.53286e-06 0)
(-54.5521 -5.53284e-06 0)
(-53.2945 -5.66974e-06 0)
(-53.2945 -5.67012e-06 0)
(-53.2945 -5.6701e-06 0)
(-52.0372 -5.81339e-06 0)
(-52.0372 -5.81379e-06 0)
(-52.0372 -5.81377e-06 0)
(-50.7801 -5.96392e-06 0)
(-50.7801 -5.96436e-06 0)
(-50.7801 -5.96434e-06 0)
(-49.5233 -6.12187e-06 0)
(-49.5233 -6.12234e-06 0)
(-49.5233 -6.12232e-06 0)
(-48.2666 -6.28781e-06 0)
(-48.2666 -6.28833e-06 0)
(-48.2666 -6.2883e-06 0)
(-47.0102 -6.46239e-06 0)
(-47.0102 -6.46295e-06 0)
(-47.0102 -6.46292e-06 0)
(-45.7541 -6.64631e-06 0)
(-45.7541 -6.64692e-06 0)
(-45.7541 -6.64689e-06 0)
(-44.4981 -6.84037e-06 0)
(-44.4981 -6.84103e-06 0)
(-44.4981 -6.841e-06 0)
(-43.2423 -7.04543e-06 0)
(-43.2423 -7.04616e-06 0)
(-43.2423 -7.04613e-06 0)
(-41.9868 -7.26248e-06 0)
(-41.9868 -7.26329e-06 0)
(-41.9868 -7.26325e-06 0)
(-40.7314 -7.49263e-06 0)
(-40.7314 -7.49352e-06 0)
(-40.7314 -7.49348e-06 0)
(-39.4762 -7.73714e-06 0)
(-39.4762 -7.73813e-06 0)
(-39.4762 -7.73808e-06 0)
(-38.2212 -7.99747e-06 0)
(-38.2212 -7.99857e-06 0)
(-38.2212 -7.99852e-06 0)
(-36.9663 -8.27529e-06 0)
(-36.9663 -8.27651e-06 0)
(-36.9663 -8.27646e-06 0)
(-35.7117 -8.57253e-06 0)
(-35.7117 -8.57388e-06 0)
(-35.7117 -8.57382e-06 0)
(-34.4572 -8.89133e-06 0)
(-34.4572 -8.89283e-06 0)
(-34.4572 -8.89277e-06 0)
(-33.2028 -9.234e-06 0)
(-33.2028 -9.23569e-06 0)
(-33.2028 -9.23561e-06 0)
(-31.9486 -9.60293e-06 0)
(-31.9486 -9.60486e-06 0)
(-31.9486 -9.60478e-06 0)
(-30.6946 -1.00005e-05 0)
(-30.6946 -1.00028e-05 0)
(-30.6946 -1.00027e-05 0)
(-29.4407 -1.04294e-05 0)
(-29.4407 -1.04322e-05 0)
(-29.4407 -1.04321e-05 0)
(-28.1869 -1.08928e-05 0)
(-28.1869 -1.08963e-05 0)
(-28.1869 -1.08962e-05 0)
(-26.9333 -1.13961e-05 0)
(-26.9333 -1.14004e-05 0)
(-26.9333 -1.14003e-05 0)
(-25.6797 -1.19487e-05 0)
(-25.6797 -1.1954e-05 0)
(-25.6797 -1.19538e-05 0)
(-24.4263 -1.25665e-05 0)
(-24.4263 -1.25723e-05 0)
(-24.4263 -1.25721e-05 0)
(-23.173 -1.32726e-05 0)
(-23.173 -1.32784e-05 0)
(-23.173 -1.3278e-05 0)
(-21.9198 -1.40955e-05 0)
(-21.9198 -1.40999e-05 0)
(-21.9198 -1.40995e-05 0)
(-20.6667 -1.50582e-05 0)
(-20.6667 -1.50605e-05 0)
(-20.6667 -1.506e-05 0)
(-19.4138 -1.61594e-05 0)
(-19.4138 -1.61605e-05 0)
(-19.4138 -1.61602e-05 0)
(-18.1608 -1.73467e-05 0)
(-18.1608 -1.73512e-05 0)
(-18.1608 -1.73513e-05 0)
(-16.908 -1.84953e-05 0)
(-16.908 -1.8514e-05 0)
(-16.908 -1.85151e-05 0)
(-15.6553 -1.94238e-05 0)
(-15.6553 -1.94753e-05 0)
(-15.6553 -1.94775e-05 0)
(-14.4026 -1.99888e-05 0)
(-14.4026 -2.00954e-05 0)
(-14.4026 -2.00983e-05 0)
(-13.15 -2.02927e-05 0)
(-13.15 -2.04669e-05 0)
(-13.15 -2.04681e-05 0)
(-11.8974 -2.09948e-05 0)
(-11.8974 -2.12161e-05 0)
(-11.8974 -2.1211e-05 0)
(-10.6449 -2.35214e-05 0)
(-10.6449 -2.36781e-05 0)
(-10.6449 -2.36563e-05 0)
(-9.39248 -3.01744e-05 0)
(-9.39248 -3.01181e-05 0)
(-9.39248 -3.0088e-05 0)
(-8.14007 -4.40956e-05 0)
(-8.14007 -4.37251e-05 0)
(-8.14007 -4.37021e-05 0)
(-6.8877 -6.84492e-05 0)
(-6.8877 -6.78154e-05 0)
(-6.8877 -6.78213e-05 0)
(-5.63536 -0.000103927 0)
(-5.63536 -0.000103232 0)
(-5.63536 -0.000103273 0)
(-4.38304 -0.000143889 0)
(-4.38304 -0.000143372 0)
(-4.38304 -0.000143431 0)
(-3.13075 -0.000169026 0)
(-3.13075 -0.000168837 0)
(-3.13075 -0.000168888 0)
(-1.87847 -0.000148956 0)
(-1.87847 -0.000149104 0)
(-1.87847 -0.000149129 0)
(-0.626196 -5.13134e-05 0)
(-0.626196 -5.16956e-05 0)
(-0.626196 -5.16922e-05 0)
(0.626073 5.20622e-05 0)
(0.626073 5.16025e-05 0)
(0.626073 5.16256e-05 0)
(1.87834 0.000148235 0)
(1.87834 0.000147813 0)
(1.87834 0.000147844 0)
(3.13062 0.000166896 0)
(3.13062 0.000166576 0)
(3.13062 0.000166606 0)
(4.38292 0.000140957 0)
(4.38292 0.00014076 0)
(4.38292 0.000140782 0)
(5.63523 0.000100878 0)
(5.63523 0.00010079 0)
(5.63523 0.000100802 0)
(6.88757 6.5955e-05 0)
(6.88757 6.59435e-05 0)
(6.88757 6.59479e-05 0)
(8.13994 4.27093e-05 0)
(8.13994 4.2742e-05 0)
(8.13994 4.27411e-05 0)
(9.39235 3.00808e-05 0)
(9.39235 3.01318e-05 0)
(9.39235 3.01284e-05 0)
(10.6448 2.43934e-05 0)
(10.6448 2.44463e-05 0)
(10.6448 2.44424e-05 0)
(11.8973 2.21961e-05 0)
(11.8973 2.22425e-05 0)
(11.8973 2.22391e-05 0)
(13.1499 2.12436e-05 0)
(13.1499 2.12809e-05 0)
(13.1499 2.12783e-05 0)
(14.4025 2.04469e-05 0)
(14.4025 2.04755e-05 0)
(14.4025 2.04737e-05 0)
(15.6551 1.94671e-05 0)
(15.6551 1.94885e-05 0)
(15.6551 1.94873e-05 0)
(16.9079 1.83216e-05 0)
(16.9079 1.83377e-05 0)
(16.9079 1.83368e-05 0)
(18.1607 1.71304e-05 0)
(18.1607 1.71425e-05 0)
(18.1607 1.7142e-05 0)
(19.4136 1.59962e-05 0)
(19.4136 1.60057e-05 0)
(19.4136 1.60052e-05 0)
(20.6666 1.49728e-05 0)
(20.6666 1.49803e-05 0)
(20.6666 1.498e-05 0)
(21.9197 1.40724e-05 0)
(21.9197 1.40784e-05 0)
(21.9197 1.40782e-05 0)
(23.1729 1.3284e-05 0)
(23.1729 1.3289e-05 0)
(23.1729 1.32888e-05 0)
(24.4262 1.25887e-05 0)
(24.4262 1.25929e-05 0)
(24.4262 1.25927e-05 0)
(25.6796 1.19682e-05 0)
(25.6796 1.19717e-05 0)
(25.6796 1.19716e-05 0)
(26.9331 1.1408e-05 0)
(26.9331 1.1411e-05 0)
(26.9331 1.14109e-05 0)
(28.1868 1.08977e-05 0)
(28.1868 1.09002e-05 0)
(28.1868 1.09001e-05 0)
(29.4406 1.04298e-05 0)
(29.4406 1.0432e-05 0)
(29.4406 1.04319e-05 0)
(30.6945 9.99909e-06 0)
(30.6945 1.0001e-05 0)
(30.6945 1.00009e-05 0)
(31.9485 9.60126e-06 0)
(31.9485 9.6029e-06 0)
(31.9485 9.60283e-06 0)
(33.2027 9.23284e-06 0)
(33.2027 9.23429e-06 0)
(33.2027 9.23423e-06 0)
(34.4571 8.89082e-06 0)
(34.4571 8.8921e-06 0)
(34.4571 8.89205e-06 0)
(35.7116 8.57249e-06 0)
(35.7116 8.57363e-06 0)
(35.7116 8.57359e-06 0)
(36.9662 8.27549e-06 0)
(36.9662 8.27652e-06 0)
(36.9662 8.27648e-06 0)
(38.2211 7.99773e-06 0)
(38.2211 7.99865e-06 0)
(38.2211 7.99862e-06 0)
(39.4761 7.73738e-06 0)
(39.4761 7.73821e-06 0)
(39.4761 7.73818e-06 0)
(40.7313 7.49281e-06 0)
(40.7313 7.49356e-06 0)
(40.7313 7.49353e-06 0)
(41.9866 7.2626e-06 0)
(41.9866 7.26329e-06 0)
(41.9866 7.26327e-06 0)
(43.2422 7.04552e-06 0)
(43.2422 7.04615e-06 0)
(43.2422 7.04612e-06 0)
(44.498 6.84044e-06 0)
(44.498 6.84101e-06 0)
(44.498 6.84099e-06 0)
(45.7539 6.64638e-06 0)
(45.7539 6.64691e-06 0)
(45.7539 6.64689e-06 0)
(47.0101 6.46246e-06 0)
(47.0101 6.46294e-06 0)
(47.0101 6.46292e-06 0)
(48.2665 6.28788e-06 0)
(48.2665 6.28832e-06 0)
(48.2665 6.28831e-06 0)
(49.5231 6.12193e-06 0)
(49.5231 6.12234e-06 0)
(49.5231 6.12233e-06 0)
(50.78 5.96398e-06 0)
(50.78 5.96436e-06 0)
(50.78 5.96435e-06 0)
(52.0371 5.81344e-06 0)
(52.0371 5.8138e-06 0)
(52.0371 5.81379e-06 0)
(53.2944 5.6698e-06 0)
(53.2944 5.67012e-06 0)
(53.2944 5.67011e-06 0)
(54.5519 5.53256e-06 0)
(54.5519 5.53286e-06 0)
(54.5519 5.53285e-06 0)
(55.8097 5.4013e-06 0)
(55.8097 5.40158e-06 0)
(55.8097 5.40157e-06 0)
(57.0678 5.27562e-06 0)
(57.0678 5.27589e-06 0)
(57.0678 5.27588e-06 0)
(58.3261 5.15516e-06 0)
(58.3261 5.15541e-06 0)
(58.3261 5.1554e-06 0)
(59.5847 5.03959e-06 0)
(59.5847 5.03982e-06 0)
(59.5847 5.03981e-06 0)
(60.8436 4.9286e-06 0)
(60.8436 4.92882e-06 0)
(60.8436 4.92881e-06 0)
(62.1028 4.82191e-06 0)
(62.1028 4.82212e-06 0)
(62.1028 4.82211e-06 0)
(63.3622 4.71927e-06 0)
(63.3622 4.71946e-06 0)
(63.3622 4.71946e-06 0)
(64.622 4.62043e-06 0)
(64.622 4.62062e-06 0)
(64.622 4.62061e-06 0)
(65.882 4.52519e-06 0)
(65.882 4.52536e-06 0)
(65.882 4.52535e-06 0)
(67.1423 4.43332e-06 0)
(67.1423 4.43348e-06 0)
(67.1423 4.43348e-06 0)
(68.403 4.34465e-06 0)
(68.403 4.34481e-06 0)
(68.403 4.3448e-06 0)
(69.664 4.259e-06 0)
(69.664 4.25915e-06 0)
(69.664 4.25914e-06 0)
(70.9253 4.17621e-06 0)
(70.9253 4.17635e-06 0)
(70.9253 4.17635e-06 0)
(72.1869 4.09613e-06 0)
(72.1869 4.09626e-06 0)
(72.1869 4.09625e-06 0)
(73.4488 4.01861e-06 0)
(73.4488 4.01873e-06 0)
(73.4488 4.01873e-06 0)
(74.7111 3.94352e-06 0)
(74.7111 3.94364e-06 0)
(74.7111 3.94363e-06 0)
(75.9738 3.87074e-06 0)
(75.9738 3.87085e-06 0)
(75.9738 3.87085e-06 0)
(77.2368 3.80016e-06 0)
(77.2368 3.80027e-06 0)
(77.2368 3.80026e-06 0)
(78.5001 3.73166e-06 0)
(78.5001 3.73176e-06 0)
(78.5001 3.73176e-06 0)
(79.7639 3.66515e-06 0)
(79.7639 3.66525e-06 0)
(79.7639 3.66524e-06 0)
(81.028 3.60053e-06 0)
(81.028 3.60062e-06 0)
(81.028 3.60062e-06 0)
(82.2925 3.53771e-06 0)
(82.2925 3.5378e-06 0)
(82.2925 3.5378e-06 0)
(83.5573 3.47661e-06 0)
(83.5573 3.4767e-06 0)
(83.5573 3.47669e-06 0)
(84.8226 3.41715e-06 0)
(84.8226 3.41723e-06 0)
(84.8226 3.41723e-06 0)
(86.0882 3.35925e-06 0)
(86.0882 3.35933e-06 0)
(86.0882 3.35933e-06 0)
(87.3543 3.30285e-06 0)
(87.3543 3.30292e-06 0)
(87.3543 3.30292e-06 0)
(88.6208 3.24788e-06 0)
(88.6208 3.24794e-06 0)
(88.6208 3.24794e-06 0)
(89.8877 3.19426e-06 0)
(89.8877 3.19433e-06 0)
(89.8877 3.19433e-06 0)
(91.155 3.14196e-06 0)
(91.155 3.14202e-06 0)
(91.155 3.14202e-06 0)
(92.4227 3.09091e-06 0)
(92.4227 3.09097e-06 0)
(92.4227 3.09096e-06 0)
(93.6909 3.04105e-06 0)
(93.6909 3.04111e-06 0)
(93.6909 3.0411e-06 0)
(94.9595 2.99234e-06 0)
(94.9595 2.99239e-06 0)
(94.9595 2.99239e-06 0)
(96.2286 2.94472e-06 0)
(96.2286 2.94478e-06 0)
(96.2286 2.94478e-06 0)
(97.4981 2.89817e-06 0)
(97.4981 2.89822e-06 0)
(97.4981 2.89821e-06 0)
(98.7681 2.85262e-06 0)
(98.7681 2.85267e-06 0)
(98.7681 2.85266e-06 0)
(100.039 2.80804e-06 0)
(100.039 2.80808e-06 0)
(100.039 2.80808e-06 0)
(101.31 2.76439e-06 0)
(101.31 2.76443e-06 0)
(101.31 2.76443e-06 0)
(102.581 2.72163e-06 0)
(102.581 2.72167e-06 0)
(102.581 2.72167e-06 0)
(103.853 2.67973e-06 0)
(103.853 2.67977e-06 0)
(103.853 2.67977e-06 0)
(105.125 2.63865e-06 0)
(105.125 2.63869e-06 0)
(105.125 2.63869e-06 0)
(106.398 2.59836e-06 0)
(106.398 2.5984e-06 0)
(106.398 2.5984e-06 0)
(107.672 2.55884e-06 0)
(107.672 2.55888e-06 0)
(107.672 2.55887e-06 0)
(108.946 2.52004e-06 0)
(108.946 2.52008e-06 0)
(108.946 2.52008e-06 0)
(110.22 2.48195e-06 0)
(110.22 2.48199e-06 0)
(110.22 2.48198e-06 0)
(111.495 2.44453e-06 0)
(111.495 2.44457e-06 0)
(111.495 2.44457e-06 0)
(112.77 2.40777e-06 0)
(112.77 2.4078e-06 0)
(112.77 2.4078e-06 0)
(114.047 2.37162e-06 0)
(114.047 2.37166e-06 0)
(114.047 2.37165e-06 0)
(115.323 2.33608e-06 0)
(115.323 2.33611e-06 0)
(115.323 2.33611e-06 0)
(116.6 2.30112e-06 0)
(116.6 2.30115e-06 0)
(116.6 2.30115e-06 0)
(117.878 2.26671e-06 0)
(117.878 2.26674e-06 0)
(117.878 2.26674e-06 0)
(119.156 2.23284e-06 0)
(119.156 2.23287e-06 0)
(119.156 2.23286e-06 0)
(120.435 2.19948e-06 0)
(120.435 2.19951e-06 0)
(120.435 2.19951e-06 0)
(121.715 2.16662e-06 0)
(121.715 2.16665e-06 0)
(121.715 2.16664e-06 0)
(122.995 2.13423e-06 0)
(122.995 2.13426e-06 0)
(122.995 2.13426e-06 0)
(124.275 2.10231e-06 0)
(124.275 2.10233e-06 0)
(124.275 2.10233e-06 0)
(125.557 2.07082e-06 0)
(125.557 2.07085e-06 0)
(125.557 2.07084e-06 0)
(126.839 2.03976e-06 0)
(126.839 2.03978e-06 0)
(126.839 2.03978e-06 0)
(128.121 2.00911e-06 0)
(128.121 2.00913e-06 0)
(128.121 2.00912e-06 0)
(129.404 1.97884e-06 0)
(129.404 1.97887e-06 0)
(129.404 1.97886e-06 0)
(130.688 1.94896e-06 0)
(130.688 1.94898e-06 0)
(130.688 1.94898e-06 0)
(131.972 1.91944e-06 0)
(131.972 1.91946e-06 0)
(131.972 1.91945e-06 0)
(133.257 1.89026e-06 0)
(133.257 1.89028e-06 0)
(133.257 1.89028e-06 0)
(134.543 1.86142e-06 0)
(134.543 1.86144e-06 0)
(134.543 1.86144e-06 0)
(135.83 1.83291e-06 0)
(135.83 1.83292e-06 0)
(135.83 1.83292e-06 0)
(137.117 1.8047e-06 0)
(137.117 1.80471e-06 0)
(137.117 1.80471e-06 0)
(138.404 1.77678e-06 0)
(138.404 1.7768e-06 0)
(138.404 1.77679e-06 0)
(139.693 1.74915e-06 0)
(139.693 1.74917e-06 0)
(139.693 1.74916e-06 0)
(140.982 1.72179e-06 0)
(140.982 1.72181e-06 0)
(140.982 1.7218e-06 0)
(142.272 1.69469e-06 0)
(142.272 1.69471e-06 0)
(142.272 1.6947e-06 0)
(143.562 1.66784e-06 0)
(143.562 1.66786e-06 0)
(143.562 1.66785e-06 0)
(144.854 1.64123e-06 0)
(144.854 1.64124e-06 0)
(144.854 1.64124e-06 0)
(146.146 1.61484e-06 0)
(146.146 1.61486e-06 0)
(146.146 1.61485e-06 0)
(147.438 1.58868e-06 0)
(147.438 1.58869e-06 0)
(147.438 1.58869e-06 0)
(148.732 1.56271e-06 0)
(148.732 1.56273e-06 0)
(148.732 1.56272e-06 0)
(150.026 1.53695e-06 0)
(150.026 1.53696e-06 0)
(150.026 1.53696e-06 0)
(151.321 1.51138e-06 0)
(151.321 1.51139e-06 0)
(151.321 1.51138e-06 0)
(152.617 1.48598e-06 0)
(152.617 1.48599e-06 0)
(152.617 1.48599e-06 0)
(153.913 1.46075e-06 0)
(153.913 1.46076e-06 0)
(153.913 1.46076e-06 0)
(155.21 1.43568e-06 0)
(155.21 1.43569e-06 0)
(155.21 1.43569e-06 0)
(156.509 1.41076e-06 0)
(156.509 1.41077e-06 0)
(156.509 1.41077e-06 0)
(157.807 1.38599e-06 0)
(157.807 1.386e-06 0)
(157.807 1.38599e-06 0)
(159.107 1.36134e-06 0)
(159.107 1.36135e-06 0)
(159.107 1.36135e-06 0)
(160.408 1.33683e-06 0)
(160.408 1.33684e-06 0)
(160.408 1.33683e-06 0)
(161.709 1.31243e-06 0)
(161.709 1.31244e-06 0)
(161.709 1.31243e-06 0)
(163.011 1.28814e-06 0)
(163.011 1.28815e-06 0)
(163.011 1.28815e-06 0)
(164.314 1.26395e-06 0)
(164.314 1.26396e-06 0)
(164.314 1.26396e-06 0)
(165.618 1.23986e-06 0)
(165.618 1.23987e-06 0)
(165.618 1.23986e-06 0)
(166.923 1.21585e-06 0)
(166.923 1.21586e-06 0)
(166.923 1.21585e-06 0)
(168.228 1.19192e-06 0)
(168.228 1.19193e-06 0)
(168.228 1.19192e-06 0)
(169.535 1.16806e-06 0)
(169.535 1.16807e-06 0)
(169.535 1.16806e-06 0)
(170.842 1.14426e-06 0)
(170.842 1.14427e-06 0)
(170.842 1.14427e-06 0)
(172.15 1.12052e-06 0)
(172.15 1.12053e-06 0)
(172.15 1.12053e-06 0)
(173.459 1.09683e-06 0)
(173.459 1.09684e-06 0)
(173.459 1.09684e-06 0)
(174.769 1.07318e-06 0)
(174.769 1.07319e-06 0)
(174.769 1.07319e-06 0)
(176.08 1.04957e-06 0)
(176.08 1.04958e-06 0)
(176.08 1.04957e-06 0)
(177.392 1.02598e-06 0)
(177.392 1.02599e-06 0)
(177.392 1.02598e-06 0)
(178.705 1.00242e-06 0)
(178.705 1.00242e-06 0)
(178.705 1.00242e-06 0)
(180.019 9.78863e-07 0)
(180.019 9.7887e-07 0)
(180.019 9.78865e-07 0)
(181.333 9.55317e-07 0)
(181.333 9.55324e-07 0)